<?xml version="1.0" encoding="UTF-8"?>

<!-- generated on 2023-03-31 10:47:15 by Eclipse SUMO GUI Version 1.12.0
<configuration xmlns:xsi="http://www.w3.org/2001/XMLSchema-instance" xsi:noNamespaceSchemaLocation="http://sumo.dlr.de/xsd/sumoConfiguration.xsd">

    <input>
        <net-file value="4legs.net.xml"/>
        <route-files value="cross_test.rou.xml"/>
    </input>

    <output>
        <emission-output value="emission_output.xml"/>
        <tripinfo-output value="tripinfo_output.xml"/>
    </output>

    <time>
        <begin value="0"/>
        <end value="3600"/>
        <step-length value="0.1"/>
    </time>

    <processing>
        <collision.check-junctions value="true"/>
        <time-to-teleport value="-1"/>
        <default.action-step-length value="0.1"/>
    </processing>

    <traci_server>
        <remote-port value="58910"/>
    </traci_server>

    <gui_only>
        <tracker-interval value="0.1"/>
    </gui_only>

</configuration>
-->

<tripinfos xmlns:xsi="http://www.w3.org/2001/XMLSchema-instance" xsi:noNamespaceSchemaLocation="http://sumo.dlr.de/xsd/tripinfo_file.xsd">
</tripinfos>
